:RELAXSTEP: 10
:E(Ha): -3.908546019879667E+01
:R(Bohr):
  11.548198210026944   11.547614669422513   15.326426629054957
  10.039419130961258   11.547570896050866   13.707563368631778
  13.055352659011799   11.547614434526544   16.947310002313245
:ISFD: 0
:ISRESET: 0
:STEP: 7
:DX:
  -0.000468760695401
   0.000000859365803
  -0.000181227427200
   0.000069722886810
  -0.000000469924954
  -0.000947808932748
   0.000399037808592
  -0.000000389440851
   0.001129036359949
  -0.000780973978101
   0.000005187665796
   0.000853756023021
   0.000499002698975
  -0.000003592261548
  -0.006184096767997
   0.000281971279126
  -0.000001595404257
   0.005330340744976
  -0.000744895156785
   0.000002106277577
  -0.000124224679759
   0.002741492642496
  -0.000001454843931
  -0.001144566898672
  -0.001996597485711
  -0.000000651433648
   0.001268791578429
  -0.001837951265616
   0.000013998615501
   0.001518378792799
   0.016390142446033
  -0.000010074044804
  -0.012698738107732
  -0.014552191180417
  -0.000003924570713
   0.011180359314924
  -0.001416567640844
  -0.000001159722052
  -0.006456713803033
   0.045512474731911
  -0.000011871219078
  -0.046977246396237
  -0.044095907091066
   0.000013030941062
   0.053433960199254
   0.010545570787926
  -0.000039407858761
   0.002856199295616
  -0.002720743739731
   0.000022904986112
   0.000869419888398
  -0.007824827048195
   0.000016502872661
  -0.003725619184021
  -0.003985634255811
   0.000012030203877
  -0.000933877972459
  -0.014127252471395
  -0.000004118084220
   0.013663974503405
   0.018112886727206
  -0.000007912119642
  -0.012730096530937
   0.000000000000000
   0.000000000000000
   0.000000000000000
   0.000000000000000
   0.000000000000000
   0.000000000000000
   0.000000000000000
   0.000000000000000
   0.000000000000000
   0.000000000000000
   0.000000000000000
   0.000000000000000
   0.000000000000000
   0.000000000000000
   0.000000000000000
   0.000000000000000
   0.000000000000000
   0.000000000000000
   0.000000000000000
   0.000000000000000
   0.000000000000000
   0.000000000000000
   0.000000000000000
   0.000000000000000
   0.000000000000000
   0.000000000000000
   0.000000000000000
   0.000000000000000
   0.000000000000000
   0.000000000000000
   0.000000000000000
   0.000000000000000
   0.000000000000000
   0.000000000000000
   0.000000000000000
   0.000000000000000
   0.000000000000000
   0.000000000000000
   0.000000000000000
   0.000000000000000
   0.000000000000000
   0.000000000000000
   0.000000000000000
   0.000000000000000
   0.000000000000000
   0.000000000000000
   0.000000000000000
   0.000000000000000
   0.000000000000000
   0.000000000000000
   0.000000000000000
   0.000000000000000
   0.000000000000000
   0.000000000000000
   0.000000000000000
   0.000000000000000
   0.000000000000000
   0.000000000000000
   0.000000000000000
   0.000000000000000
   0.000000000000000
   0.000000000000000
   0.000000000000000
   0.000000000000000
   0.000000000000000
   0.000000000000000
   0.000000000000000
   0.000000000000000
   0.000000000000000
   0.000000000000000
   0.000000000000000
   0.000000000000000
   0.000000000000000
   0.000000000000000
   0.000000000000000
   0.000000000000000
   0.000000000000000
   0.000000000000000
   0.000000000000000
   0.000000000000000
   0.000000000000000
   0.000000000000000
   0.000000000000000
   0.000000000000000
   0.000000000000000
   0.000000000000000
   0.000000000000000
   0.000000000000000
   0.000000000000000
   0.000000000000000
   0.000000000000000
   0.000000000000000
   0.000000000000000
   0.000000000000000
   0.000000000000000
   0.000000000000000
   0.000000000000000
   0.000000000000000
   0.000000000000000
   0.000000000000000
   0.000000000000000
   0.000000000000000
   0.000000000000000
   0.000000000000000
   0.000000000000000
   0.000000000000000
   0.000000000000000
   0.000000000000000
   0.000000000000000
   0.000000000000000
   0.000000000000000
   0.000000000000000
   0.000000000000000
   0.000000000000000
   0.000000000000000
   0.000000000000000
   0.000000000000000
:DG:
  -0.000932835198745
   0.000000100996217
  -0.000855772139167
  -0.000025271256112
   0.000000268450865
   0.000086771744407
   0.000958106454857
  -0.000000369447082
   0.000769000394760
  -0.000108295921695
   0.000001063947007
   0.000300750082493
  -0.002936337893962
  -0.000000572512759
  -0.002790939898882
   0.003044633815658
  -0.000000491434248
   0.002490189816389
  -0.001160379083396
   0.000000212399689
  -0.000985407159508
   0.001341333147435
   0.000000105196490
   0.001125558758902
  -0.000180954064039
  -0.000000317596179
  -0.000140151599394
  -0.000816414479230
   0.000002630024730
   0.000113432182582
   0.003440815419802
  -0.000001229971674
   0.002347832133853
  -0.002624400940573
  -0.000001400053056
  -0.002461264316435
  -0.009203773248204
  -0.000000059707428
  -0.009948075782424
   0.003624028029210
   0.000001137613879
   0.001623359933796
   0.005579745218994
  -0.000001077906451
   0.008324715848629
   0.017734188176328
  -0.000006926328835
   0.017262011638740
  -0.006268756898712
   0.000003005221877
  -0.006142745542265
  -0.011465431277616
   0.000003921106958
  -0.011119266096475
  -0.006569491837771
   0.000001710329518
  -0.006650693454011
   0.001507336004992
  -0.000001013741095
   0.002615226508872
   0.005062155832779
  -0.000000696588424
   0.004035466945140
   0.000000000000000
   0.000000000000000
   0.000000000000000
   0.000000000000000
   0.000000000000000
   0.000000000000000
   0.000000000000000
   0.000000000000000
   0.000000000000000
   0.000000000000000
   0.000000000000000
   0.000000000000000
   0.000000000000000
   0.000000000000000
   0.000000000000000
   0.000000000000000
   0.000000000000000
   0.000000000000000
   0.000000000000000
   0.000000000000000
   0.000000000000000
   0.000000000000000
   0.000000000000000
   0.000000000000000
   0.000000000000000
   0.000000000000000
   0.000000000000000
   0.000000000000000
   0.000000000000000
   0.000000000000000
   0.000000000000000
   0.000000000000000
   0.000000000000000
   0.000000000000000
   0.000000000000000
   0.000000000000000
   0.000000000000000
   0.000000000000000
   0.000000000000000
   0.000000000000000
   0.000000000000000
   0.000000000000000
   0.000000000000000
   0.000000000000000
   0.000000000000000
   0.000000000000000
   0.000000000000000
   0.000000000000000
   0.000000000000000
   0.000000000000000
   0.000000000000000
   0.000000000000000
   0.000000000000000
   0.000000000000000
   0.000000000000000
   0.000000000000000
   0.000000000000000
   0.000000000000000
   0.000000000000000
   0.000000000000000
   0.000000000000000
   0.000000000000000
   0.000000000000000
   0.000000000000000
   0.000000000000000
   0.000000000000000
   0.000000000000000
   0.000000000000000
   0.000000000000000
   0.000000000000000
   0.000000000000000
   0.000000000000000
   0.000000000000000
   0.000000000000000
   0.000000000000000
   0.000000000000000
   0.000000000000000
   0.000000000000000
   0.000000000000000
   0.000000000000000
   0.000000000000000
   0.000000000000000
   0.000000000000000
   0.000000000000000
   0.000000000000000
   0.000000000000000
   0.000000000000000
   0.000000000000000
   0.000000000000000
   0.000000000000000
   0.000000000000000
   0.000000000000000
   0.000000000000000
   0.000000000000000
   0.000000000000000
   0.000000000000000
   0.000000000000000
   0.000000000000000
   0.000000000000000
   0.000000000000000
   0.000000000000000
   0.000000000000000
   0.000000000000000
   0.000000000000000
   0.000000000000000
   0.000000000000000
   0.000000000000000
   0.000000000000000
   0.000000000000000
   0.000000000000000
   0.000000000000000
   0.000000000000000
   0.000000000000000
   0.000000000000000
   0.000000000000000
   0.000000000000000
   0.000000000000000
:IYS:
568533.581770174438134
33038.614293150298181
280960.429905673430767
25689.287238892651658
2741.786264504357405
2637.287198903801709
11474.100454134162646
   0.000000000000000
   0.000000000000000
   0.000000000000000
   0.000000000000000
   0.000000000000000
   0.000000000000000
   0.000000000000000
   0.000000000000000
   0.000000000000000
   0.000000000000000
   0.000000000000000
   0.000000000000000
   0.000000000000000
:FOLD:
   0.000047564119322
   0.000003118912442
   0.000373496322488
  -0.000533004069741
  -0.000002712202192
  -0.000906091958072
   0.000485439950419
  -0.000000406710250
   0.000532595635584
:RDISP:
  -0.001169349769071
   0.000017226369206
   0.000992468652871
   0.003637156551491
  -0.000014862849756
  -0.004616876091932
  -0.002467806782420
  -0.000002363519455
   0.003624407439062
