:RELAXSTEP: 35
:E(Ha): -4.043833052659596E+02
:R(Bohr):
   5.155332415412182    2.976942615120007   24.292607496983109
   2.619030000000000    1.512100000000000   13.228100000000000
   5.238050000000000    3.024190000000000   17.504899999999999
   0.271688434195079    0.156958269147352   21.854665805448665
:ISFD: 0
:ISRESET: 0
:STEP: 10
:DX:
  -0.010350788517904
  -0.006624558368228
  -0.043127747597712
   0.000000000000000
   0.000000000000000
   0.000000000000000
   0.000000000000000
   0.000000000000000
   0.000000000000000
   0.012233130072955
   0.007507659679271
   0.040334550104465
  -0.015424995466474
  -0.010001025644875
  -0.043372608480936
   0.000000000000000
   0.000000000000000
   0.000000000000000
   0.000000000000000
   0.000000000000000
   0.000000000000000
   0.019867996497914
   0.012676988675414
   0.037731827559540
  -0.001531595607021
  -0.001499312469926
   0.002438513977356
   0.000000000000000
   0.000000000000000
   0.000000000000000
   0.000000000000000
   0.000000000000000
   0.000000000000000
   0.003414553224212
   0.002471588489070
  -0.006497891037316
  -0.012223711929385
  -0.010329319673015
  -0.002262089495037
   0.000000000000000
   0.000000000000000
   0.000000000000000
   0.000000000000000
   0.000000000000000
   0.000000000000000
   0.025979779379037
   0.017778101250084
  -0.025172704848483
  -0.005876512229839
  -0.003675633154725
  -0.010928950760469
   0.000000000000000
   0.000000000000000
   0.000000000000000
   0.000000000000000
   0.000000000000000
   0.000000000000000
   0.019445762507005
   0.010617542872926
  -0.012382057647567
   0.005610760092267
   0.003413077199306
  -0.013930005535222
   0.000000000000000
   0.000000000000000
   0.000000000000000
   0.000000000000000
   0.000000000000000
   0.000000000000000
   0.009873271471081
   0.004818381146050
  -0.005684530849127
   0.042463531109231
   0.023830496906222
  -0.060688965109229
   0.000000000000000
   0.000000000000000
   0.000000000000000
   0.000000000000000
   0.000000000000000
   0.000000000000000
   0.034176022924214
   0.015870593587872
  -0.037834843570788
   0.039738724558315
   0.007845241838989
  -0.035579756049188
   0.000000000000000
   0.000000000000000
   0.000000000000000
   0.000000000000000
   0.000000000000000
   0.000000000000000
   0.005171710355522
   0.017301924105307
  -0.024034794219720
  -0.002821614288184
   0.013630801136565
   0.008492296282764
   0.000000000000000
   0.000000000000000
   0.000000000000000
   0.000000000000000
   0.000000000000000
   0.000000000000000
   0.001978130149015
  -0.014850079747236
   0.004918143382994
  -0.004953324428965
  -0.004843440300429
   0.013671394809617
   0.000000000000000
   0.000000000000000
   0.000000000000000
   0.000000000000000
   0.000000000000000
   0.000000000000000
  -0.009061390686786
  -0.002007462969121
   0.009760717402312
   0.000000000000000
   0.000000000000000
   0.000000000000000
   0.000000000000000
   0.000000000000000
   0.000000000000000
   0.000000000000000
   0.000000000000000
   0.000000000000000
   0.000000000000000
   0.000000000000000
   0.000000000000000
   0.000000000000000
   0.000000000000000
   0.000000000000000
   0.000000000000000
   0.000000000000000
   0.000000000000000
   0.000000000000000
   0.000000000000000
   0.000000000000000
   0.000000000000000
   0.000000000000000
   0.000000000000000
   0.000000000000000
   0.000000000000000
   0.000000000000000
   0.000000000000000
   0.000000000000000
   0.000000000000000
   0.000000000000000
   0.000000000000000
   0.000000000000000
   0.000000000000000
   0.000000000000000
   0.000000000000000
   0.000000000000000
   0.000000000000000
   0.000000000000000
   0.000000000000000
   0.000000000000000
   0.000000000000000
   0.000000000000000
   0.000000000000000
   0.000000000000000
   0.000000000000000
   0.000000000000000
   0.000000000000000
   0.000000000000000
   0.000000000000000
   0.000000000000000
   0.000000000000000
   0.000000000000000
   0.000000000000000
   0.000000000000000
   0.000000000000000
   0.000000000000000
   0.000000000000000
   0.000000000000000
   0.000000000000000
   0.000000000000000
   0.000000000000000
   0.000000000000000
   0.000000000000000
   0.000000000000000
   0.000000000000000
   0.000000000000000
   0.000000000000000
   0.000000000000000
   0.000000000000000
   0.000000000000000
   0.000000000000000
   0.000000000000000
   0.000000000000000
   0.000000000000000
   0.000000000000000
   0.000000000000000
   0.000000000000000
   0.000000000000000
   0.000000000000000
   0.000000000000000
   0.000000000000000
   0.000000000000000
   0.000000000000000
   0.000000000000000
   0.000000000000000
   0.000000000000000
   0.000000000000000
   0.000000000000000
   0.000000000000000
   0.000000000000000
   0.000000000000000
   0.000000000000000
   0.000000000000000
   0.000000000000000
   0.000000000000000
   0.000000000000000
   0.000000000000000
   0.000000000000000
   0.000000000000000
   0.000000000000000
   0.000000000000000
   0.000000000000000
   0.000000000000000
   0.000000000000000
   0.000000000000000
   0.000000000000000
   0.000000000000000
   0.000000000000000
   0.000000000000000
   0.000000000000000
   0.000000000000000
   0.000000000000000
   0.000000000000000
   0.000000000000000
   0.000000000000000
   0.000000000000000
   0.000000000000000
   0.000000000000000
   0.000000000000000
:DG:
  -0.001435825539416
  -0.000885648955292
  -0.011377000164386
   0.000000000000000
   0.000000000000000
   0.000000000000000
   0.000000000000000
   0.000000000000000
   0.000000000000000
   0.001274131517735
   0.000657092936349
   0.011371144252181
  -0.002816065555721
  -0.001525648283541
  -0.011943331989105
   0.000000000000000
   0.000000000000000
   0.000000000000000
   0.000000000000000
   0.000000000000000
   0.000000000000000
   0.002770616362159
   0.001593660858613
   0.012989147715181
   0.000005250757532
  -0.000087533950499
   0.001213495223582
   0.000000000000000
   0.000000000000000
   0.000000000000000
   0.000000000000000
   0.000000000000000
   0.000000000000000
  -0.000048247624399
   0.000038478653442
  -0.001277749182063
  -0.000706261993355
  -0.000801953592234
   0.001963198041651
   0.000000000000000
   0.000000000000000
   0.000000000000000
   0.000000000000000
   0.000000000000000
   0.000000000000000
   0.000883389638631
   0.000915950793741
  -0.002791504266356
  -0.001008062285563
  -0.000578405076761
  -0.000184210468016
   0.000000000000000
   0.000000000000000
   0.000000000000000
   0.000000000000000
   0.000000000000000
   0.000000000000000
   0.001076560844559
   0.000590165376342
  -0.000445009325411
  -0.000423919108240
  -0.000161084961391
  -0.000966553659069
   0.000000000000000
   0.000000000000000
   0.000000000000000
   0.000000000000000
   0.000000000000000
   0.000000000000000
   0.000462939060606
   0.000212867539600
   0.000977523111439
  -0.000101590329610
   0.000191260842755
  -0.001239341963709
   0.000000000000000
   0.000000000000000
   0.000000000000000
   0.000000000000000
   0.000000000000000
   0.000000000000000
   0.000669529608849
   0.000097864238408
   0.000584217540920
   0.001257415688261
  -0.001572772302981
  -0.001336974496104
   0.000000000000000
   0.000000000000000
   0.000000000000000
   0.000000000000000
   0.000000000000000
   0.000000000000000
  -0.001291088331226
   0.001692221790906
  -0.000052138882882
  -0.000527326338131
   0.002100164368276
   0.001117253443975
   0.000000000000000
   0.000000000000000
   0.000000000000000
   0.000000000000000
   0.000000000000000
   0.000000000000000
   0.000552945574835
  -0.002277385857761
  -0.000888322314441
   0.000469000161559
  -0.000052182796136
   0.000942389835913
   0.000000000000000
   0.000000000000000
   0.000000000000000
   0.000000000000000
   0.000000000000000
   0.000000000000000
  -0.000758995031790
   0.000007128429315
   0.000002342378908
   0.000000000000000
   0.000000000000000
   0.000000000000000
   0.000000000000000
   0.000000000000000
   0.000000000000000
   0.000000000000000
   0.000000000000000
   0.000000000000000
   0.000000000000000
   0.000000000000000
   0.000000000000000
   0.000000000000000
   0.000000000000000
   0.000000000000000
   0.000000000000000
   0.000000000000000
   0.000000000000000
   0.000000000000000
   0.000000000000000
   0.000000000000000
   0.000000000000000
   0.000000000000000
   0.000000000000000
   0.000000000000000
   0.000000000000000
   0.000000000000000
   0.000000000000000
   0.000000000000000
   0.000000000000000
   0.000000000000000
   0.000000000000000
   0.000000000000000
   0.000000000000000
   0.000000000000000
   0.000000000000000
   0.000000000000000
   0.000000000000000
   0.000000000000000
   0.000000000000000
   0.000000000000000
   0.000000000000000
   0.000000000000000
   0.000000000000000
   0.000000000000000
   0.000000000000000
   0.000000000000000
   0.000000000000000
   0.000000000000000
   0.000000000000000
   0.000000000000000
   0.000000000000000
   0.000000000000000
   0.000000000000000
   0.000000000000000
   0.000000000000000
   0.000000000000000
   0.000000000000000
   0.000000000000000
   0.000000000000000
   0.000000000000000
   0.000000000000000
   0.000000000000000
   0.000000000000000
   0.000000000000000
   0.000000000000000
   0.000000000000000
   0.000000000000000
   0.000000000000000
   0.000000000000000
   0.000000000000000
   0.000000000000000
   0.000000000000000
   0.000000000000000
   0.000000000000000
   0.000000000000000
   0.000000000000000
   0.000000000000000
   0.000000000000000
   0.000000000000000
   0.000000000000000
   0.000000000000000
   0.000000000000000
   0.000000000000000
   0.000000000000000
   0.000000000000000
   0.000000000000000
   0.000000000000000
   0.000000000000000
   0.000000000000000
   0.000000000000000
   0.000000000000000
   0.000000000000000
   0.000000000000000
   0.000000000000000
   0.000000000000000
   0.000000000000000
   0.000000000000000
   0.000000000000000
   0.000000000000000
   0.000000000000000
   0.000000000000000
   0.000000000000000
   0.000000000000000
   0.000000000000000
   0.000000000000000
   0.000000000000000
   0.000000000000000
   0.000000000000000
   0.000000000000000
   0.000000000000000
   0.000000000000000
   0.000000000000000
   0.000000000000000
   0.000000000000000
   0.000000000000000
   0.000000000000000
   0.000000000000000
   0.000000000000000
   0.000000000000000
:IYS:
1009.526716325591451
 875.608433098601154
88375.462456133653177
8198.085731469704115
23378.739269378871541
94558.769960968769738
12855.191919598797540
9169.832298977002210
14255.747673607949764
56498.702314715854300
   0.000000000000000
   0.000000000000000
   0.000000000000000
   0.000000000000000
   0.000000000000000
   0.000000000000000
   0.000000000000000
   0.000000000000000
   0.000000000000000
   0.000000000000000
:FOLD:
  -0.000038154691794
  -0.000034568039841
  -0.000378393865769
   0.000000000000000
   0.000000000000000
  -0.000000000000000
  -0.000000000000000
  -0.000000000000000
   0.000000000000000
   0.000702232990742
   0.000334688607869
   0.000282703125513
:RDISP:
   0.006447355600478
   0.003707726372901
  -0.005557569340599
   0.000000000000000
   0.000000000000000
   0.000000000000000
   0.000000000000000
   0.000000000000000
   0.000000000000000
   0.008835202098654
   0.004057504182768
  -0.003599692580941
